      -----------------------------------------------------------      
     |                   =====================                   |     
     |                           x T B                           |     
     |                   =====================                   |     
     |                         S. Grimme                         |     
     |          Mulliken Center for Theoretical Chemistry        |     
     |                    University of Bonn                     |     
      -----------------------------------------------------------      

   * xtb version 6.6.0 (8843059) compiled by 'stahn@majestix' on 2023-02-09

   xtb is free software: you can redistribute it and/or modify it under
   the terms of the GNU Lesser General Public License as published by
   the Free Software Foundation, either version 3 of the License, or
   (at your option) any later version.
   
   xtb is distributed in the hope that it will be useful,
   but WITHOUT ANY WARRANTY; without even the implied warranty of
   MERCHANTABILITY or FITNESS FOR A PARTICULAR PURPOSE.  See the
   GNU Lesser General Public License for more details.
   
   Cite this work as:
   * C. Bannwarth, E. Caldeweyher, S. Ehlert, A. Hansen, P. Pracht,
     J. Seibert, S. Spicher, S. Grimme, WIREs Comput. Mol. Sci., 2020, 11,
     e01493. DOI: 10.1002/wcms.1493
   
   for GFN2-xTB:
   * C. Bannwarth, S. Ehlert and S. Grimme., J. Chem. Theory Comput., 2019,
     15, 1652-1671. DOI: 10.1021/acs.jctc.8b01176
   for GFN1-xTB:
   * S. Grimme, C. Bannwarth, P. Shushkov, J. Chem. Theory Comput., 2017,
     13, 1989-2009. DOI: 10.1021/acs.jctc.7b00118
   for GFN0-xTB:
   * P. Pracht, E. Caldeweyher, S. Ehlert, S. Grimme, ChemRxiv, 2019, preprint.
     DOI: 10.26434/chemrxiv.8326202.v1
   for GFN-FF:
   * S. Spicher and S. Grimme, Angew. Chem. Int. Ed., 2020, 59, 15665-15673.
     DOI: 10.1002/anie.202004239
   
   for ALPB and GBSA implicit solvation:
   * S. Ehlert, M. Stahn, S. Spicher, S. Grimme, J. Chem. Theory Comput.,
     2021, 17, 4250-4261. DOI: 10.1021/acs.jctc.1c00471
   
   for DFT-D4:
   * E. Caldeweyher, C. Bannwarth and S. Grimme, J. Chem. Phys., 2017,
     147, 034112. DOI: 10.1063/1.4993215
   * E. Caldeweyher, S. Ehlert, A. Hansen, H. Neugebauer, S. Spicher,
     C. Bannwarth and S. Grimme, J. Chem. Phys., 2019, 150, 154122.
     DOI: 10.1063/1.5090222
   * E. Caldeweyher, J.-M. Mewes, S. Ehlert and S. Grimme, Phys. Chem. Chem. Phys.
     2020, 22, 8499-8512. DOI: 10.1039/D0CP00502A
   
   for sTDA-xTB:
   * S. Grimme and C. Bannwarth, J. Chem. Phys., 2016, 145, 054103.
     DOI: 10.1063/1.4959605
   
   in the mass-spec context:
   * V. Asgeirsson, C. Bauer and S. Grimme, Chem. Sci., 2017, 8, 4879.
     DOI: 10.1039/c7sc00601b
   * J. Koopman and S. Grimme, ACS Omega 2019, 4, 12, 15120-15133.
     DOI: 10.1021/acsomega.9b02011
   
   for metadynamics refer to:
   * S. Grimme, J. Chem. Theory Comput., 2019, 155, 2847-2862
     DOI: 10.1021/acs.jctc.9b00143
   
   for SPH calculations refer to:
   * S. Spicher and S. Grimme, J. Chem. Theory Comput., 2021, 17, 1701-1714
     DOI: 10.1021/acs.jctc.0c01306
   
   with help from (in alphabetical order)
   P. Atkinson, C. Bannwarth, F. Bohle, G. Brandenburg, E. Caldeweyher
   M. Checinski, S. Dohm, S. Ehlert, S. Ehrlich, I. Gerasimov, C. Hölzer
   A. Katbashev, J. Koopman, C. Lavigne, S. Lehtola, F. März, M. Müller,
   F. Musil, H. Neugebauer, J. Pisarek, C. Plett, P. Pracht, F. Pultar,
   J. Seibert, P. Shushkov, S. Spicher, M. Stahn, M. Steiner, T. Strunk,
   J. Stückrath, T. Rose, and J. Unsleber
   
 * started run on 2023/11/14 at 09:45:04.598     

           -------------------------------------------------
          |                Calculation Setup                |
           -------------------------------------------------

          program call               : /lustre/hpc/kemi/borup/pKalculator/dep/xtb-6.6.0/bin/xtb --gfn 1 /lustre/hpc/kemi/borup/pKalculator/src/smi2gcs/calc_smi2gcs/test_mol/test_mol.xyz --lmo --chrg 0 --uhf 0
          hostname                   : fend01.cluster
          coordinate file            : /lustre/hpc/kemi/borup/pKalculator/src/smi2gcs/calc_smi2gcs/test_mol/test_mol.xyz
          omp threads                :                     1

   ID    Z sym.   atoms
    1    6 C      1-3, 6
    2    7 N      4
    3    8 O      5
    4    1 H      7-11

           -------------------------------------------------
          |                 G F N 1 - x T B                 |
           -------------------------------------------------

        Reference                      10.1021/acs.jctc.7b00118
      * Hamiltonian:
        H0-scaling (s, p, d)           1.850000    2.250000    2.000000
        zeta-weighting                 0.000000
      * Dispersion:
        s8                             2.400000
        a1                             0.630000
        a2                             5.000000
        s9                             0.000000
      * Repulsion:
        kExp                           1.500000
        rExp                           1.000000
      * Coulomb:
        alpha                          2.000000
        third order                    atomic
        anisotropic                    false
      * Halogen bond correction:
        rad-scale                      1.300000
        damping                        0.440000


          ...................................................
          :                      SETUP                      :
          :.................................................:
          :  # basis functions                  34          :
          :  # atomic orbitals                  34          :
          :  # shells                           22          :
          :  # electrons                        32          :
          :  # halogen bonds                     0          :
          :  max. iterations                   250          :
          :  Hamiltonian                  GFN1-xTB          :
          :  restarted?                      false          :
          :  GBSA solvation                  false          :
          :  PC potential                    false          :
          :  electronic temp.          300.0000000     K    :
          :  accuracy                    1.0000000          :
          :  -> integral cutoff          0.2500000E+02      :
          :  -> integral neglect         0.1000000E-07      :
          :  -> SCF convergence          0.1000000E-05 Eh   :
          :  -> wf. convergence          0.2000000E-04 e    :
          :  Broyden damping             0.4000000          :
          ...................................................

 iter      E             dE          RMSdq      gap      omega  full diag
   1    -19.1525919 -0.191526E+02  0.863E+00    4.25       0.0  T
   2    -19.1914181 -0.388261E-01  0.514E+00    4.27       1.0  T
   3    -19.1876437  0.377433E-02  0.119E+00    4.27       1.0  T
   4    -19.1935476 -0.590383E-02  0.196E-01    4.27       1.0  T
   5    -19.1938549 -0.307376E-03  0.593E-02    4.27       1.0  T
   6    -19.1938722 -0.172199E-04  0.661E-03    4.27       4.6  T
   7    -19.1938726 -0.420109E-06  0.140E-03    4.27      21.5  T
   8    -19.1938726 -0.823484E-08  0.304E-04    4.27      99.2  T
   9    -19.1938726 -0.407233E-09  0.109E-04    4.27     277.4  T
  10    -19.1938726 -0.271534E-10  0.199E-05    4.27    1511.4  T

   *** convergence criteria satisfied after 10 iterations ***

         #    Occupation            Energy/Eh            Energy/eV
      -------------------------------------------------------------
         1        2.0000           -0.8346473             -22.7119
       ...           ...                  ...                  ...
        10        2.0000           -0.5425629             -14.7639
        11        2.0000           -0.5349323             -14.5562
        12        2.0000           -0.5240182             -14.2593
        13        2.0000           -0.5068380             -13.7918
        14        2.0000           -0.4677316             -12.7276
        15        2.0000           -0.4576576             -12.4535
        16        2.0000           -0.4299657             -11.7000 (HOMO)
        17                         -0.2729357              -7.4270 (LUMO)
        18                         -0.2068728              -5.6293
        19                         -0.1498857              -4.0786
        20                         -0.1062740              -2.8919
        21                         -0.0980300              -2.6675
       ...                                ...                  ...
        34                          0.6588825              17.9291
      -------------------------------------------------------------
                  HL-Gap            0.1570300 Eh            4.2730 eV
             Fermi-level           -0.3514507 Eh           -9.5635 eV
 
 localization/xTB-IFF output generation
 averaging CT terms over            1  occ. levels
 averaging CT terms over            1  virt. levels
 dipole moment from electron density (au)
     X       Y       Z   
  -0.6619  -1.1446  -0.4594  total (Debye):    3.558
cpu  time for init local    0.00 s
wall time for init local    0.01 s
 doing rotations ...
 initialization of trafo matrix to unity

 converged in     14 iterations, threshold :   0.99022946D-06
 doing transformations ...
 lmo centers(Z=2) and atoms on file <lmocent.coord>
 LMO Fii/eV  ncent    charge center   contributions...
    1 sigma -19.68   1.88   1.62076   2.37099   0.98475    5O :  0.63    4N :  0.38
    2 sigma -19.28   1.80   0.14072   1.52362   0.83781    5O :  0.66    1C :  0.34
    3 LP    -17.50   1.01  -0.34155   3.73253   1.97353    5O :  0.99
    4 pi    -16.27   1.35   0.51219   2.29789   0.56453    5O :  0.85    1C :  0.10
    5 sigma -16.14   1.97  -1.84676   0.12742   0.09339    1C :  0.52    6C :  0.49
    6 sigma -15.82   1.99   2.60300  -0.75393  -0.36360    2C :  0.50    3C :  0.50
    7 sigma -15.52   1.98  -3.63978  -1.15181  -0.39805    6C :  0.52   11H :  0.49
    8 sigma -15.52   2.00   1.35915  -2.59581  -1.10355    2C :  0.52    7H :  0.48
    9 sigma -15.50   2.01  -3.69070   0.18654   1.33453    6C :  0.52   10H :  0.48
   10 sigma -15.50   2.01  -3.73400   1.01838  -0.67554    6C :  0.52    9H :  0.48
   11 sigma -15.45   2.00   4.94200  -0.33276  -0.24439    3C :  0.51    8H :  0.49
   12 pi    -15.16   2.03   3.30473   1.10519   0.91321    4N :  0.56    3C :  0.42
   13 pi    -15.14   2.04   3.28171   1.47537   0.00841    4N :  0.56    3C :  0.42
   14 LP    -14.58   1.02   4.18361   3.90282   1.52554    4N :  0.99
   15 delpi -14.57   2.21   0.70086  -0.78556   0.20680    2C :  0.51    1C :  0.44
   16 delpi -14.51   2.23   0.70288  -0.39359  -0.73190    2C :  0.51    1C :  0.43
 starting deloc pi regularization ...
 thr    2.20000000000000      # pi deloc LMO           3
 files:
 coordprot.0/xtbscreen.xyz/xtblmoinfo/lmocent.coord
 with protonation site input, xtbdock and
 LMO center info written
 

 SCC (total)                   0 d,  0 h,  0 min,  0.198 sec
 SCC setup                      ...        0 min,  0.010 sec (  4.925%)
 Dispersion                     ...        0 min,  0.005 sec (  2.583%)
 classical contributions        ...        0 min,  0.000 sec (  0.035%)
 integral evaluation            ...        0 min,  0.006 sec (  2.914%)
 iterations                     ...        0 min,  0.148 sec ( 74.630%)
 molecular gradient             ...        0 min,  0.014 sec (  7.062%)
 printout                       ...        0 min,  0.015 sec (  7.824%)

         :::::::::::::::::::::::::::::::::::::::::::::::::::::
         ::                     SUMMARY                     ::
         :::::::::::::::::::::::::::::::::::::::::::::::::::::
         :: total energy             -18.989948594877 Eh    ::
         :: gradient norm              0.057074742669 Eh/a0 ::
         :: HOMO-LUMO gap              4.273004000897 eV    ::
         ::.................................................::
         :: SCC energy               -19.193872591403 Eh    ::
         :: -> electrostatic           0.025516073076 Eh    ::
         :: repulsion energy           0.207500532009 Eh    ::
         :: dispersion energy         -0.003576535482 Eh    ::
         :: halogen bond corr.         0.000000000000 Eh    ::
         :: add. restraining           0.000000000000 Eh    ::
         :: total charge               0.000000000000 e     ::
         :::::::::::::::::::::::::::::::::::::::::::::::::::::

           -------------------------------------------------
          |                Property Printout                |
           -------------------------------------------------

    * Orbital Energies and Occupations

         #    Occupation            Energy/Eh            Energy/eV
      -------------------------------------------------------------
         1        2.0000           -0.8346473             -22.7119
       ...           ...                  ...                  ...
         4        2.0000           -0.6623770             -18.0242
         5        2.0000           -0.6432716             -17.5043
         6        2.0000           -0.6185926             -16.8328
         7        2.0000           -0.6093773             -16.5820
         8        2.0000           -0.5873913             -15.9837
         9        2.0000           -0.5481239             -14.9152
        10        2.0000           -0.5425629             -14.7639
        11        2.0000           -0.5349323             -14.5562
        12        2.0000           -0.5240182             -14.2593
        13        2.0000           -0.5068380             -13.7918
        14        2.0000           -0.4677316             -12.7276
        15        2.0000           -0.4576576             -12.4535
        16        2.0000           -0.4299657             -11.7000 (HOMO)
        17                         -0.2729357              -7.4270 (LUMO)
        18                         -0.2068728              -5.6293
        19                         -0.1498857              -4.0786
        20                         -0.1062740              -2.8919
        21                         -0.0980300              -2.6675
        22                         -0.0792422              -2.1563
        23                         -0.0770095              -2.0955
        24                         -0.0120072              -0.3267
        25                          0.1211603               3.2969
        26                          0.1322185               3.5978
        27                          0.2224160               6.0522
       ...                                ...                  ...
        34                          0.6588825              17.9291
      -------------------------------------------------------------
                  HL-Gap            0.1570300 Eh            4.2730 eV
             Fermi-level           -0.3514507 Eh           -9.5635 eV

  Mulliken/CM5 charges         n(s)   n(p)   n(d)
     1C     0.25046  0.26923   1.044  2.706  0.000
     2C    -0.11639 -0.15888   1.053  3.063  0.000
     3C     0.11234  0.13988   1.036  2.852  0.000
     4N    -0.11540 -0.25235   1.590  3.525  0.000
     5O    -0.27179 -0.27965   1.710  4.562  0.000
     6C    -0.09242 -0.23243   1.005  3.087  0.000
     7H     0.04226  0.09866   0.958  0.000  0.000
     8H     0.03307  0.09847   0.967  0.000  0.000
     9H     0.05871  0.11226   0.941  0.000  0.000
    10H     0.05871  0.11226   0.941  0.000  0.000
    11H     0.04044  0.09257   0.960  0.000  0.000

Wiberg/Mayer (AO) data.
largest (>0.10) Wiberg bond orders for each atom

 ---------------------------------------------------------------------------
     #   Z sym  total        # sym  WBO       # sym  WBO       # sym  WBO
 ---------------------------------------------------------------------------
     1   6 C    3.898 --     2 C    1.542     5 O    1.119     6 C    1.030
                             4 N    0.182
     2   6 C    3.979 --     1 C    1.542     3 C    1.320     7 H    0.978
     3   6 C    3.972 --     4 N    1.597     2 C    1.320     8 H    0.976
     4   7 N    2.910 --     3 C    1.597     5 O    1.046     1 C    0.182
     5   8 O    2.329 --     1 C    1.119     4 N    1.046
     6   6 C    3.995 --     1 C    1.030    11 H    0.986     9 H    0.968
                            10 H    0.968
     7   1 H    0.997 --     2 C    0.978
     8   1 H    1.008 --     3 C    0.976
     9   1 H    1.003 --     6 C    0.968
    10   1 H    1.003 --     6 C    0.968
    11   1 H    1.003 --     6 C    0.986
 ---------------------------------------------------------------------------

Topologies differ in total number of bonds
Writing topology from bond orders to xtbtopo.mol

 dipole moment from electron density (au)
     X       Y       Z   
  -0.6619  -1.1446  -0.4594  total (Debye):    3.558


           -------------------------------------------------
          | TOTAL ENERGY              -18.989948594877 Eh   |
          | GRADIENT NORM               0.057074742669 Eh/α |
          | HOMO-LUMO GAP               4.273004000897 eV   |
           -------------------------------------------------

------------------------------------------------------------------------
 * finished run on 2023/11/14 at 09:45:05.199     
------------------------------------------------------------------------
 total:
 * wall-time:     0 d,  0 h,  0 min,  0.587 sec
 *  cpu-time:     0 d,  0 h,  0 min,  0.072 sec
 * ratio c/w:     0.123 speedup
 SCF:
 * wall-time:     0 d,  0 h,  0 min,  0.200 sec
 *  cpu-time:     0 d,  0 h,  0 min,  0.037 sec
 * ratio c/w:     0.182 speedup

