      -----------------------------------------------------------      
     |                   =====================                   |     
     |                           x T B                           |     
     |                   =====================                   |     
     |                         S. Grimme                         |     
     |          Mulliken Center for Theoretical Chemistry        |     
     |                    University of Bonn                     |     
      -----------------------------------------------------------      

   * xtb version 6.6.0 (8843059) compiled by 'stahn@majestix' on 2023-02-09

   xtb is free software: you can redistribute it and/or modify it under
   the terms of the GNU Lesser General Public License as published by
   the Free Software Foundation, either version 3 of the License, or
   (at your option) any later version.
   
   xtb is distributed in the hope that it will be useful,
   but WITHOUT ANY WARRANTY; without even the implied warranty of
   MERCHANTABILITY or FITNESS FOR A PARTICULAR PURPOSE.  See the
   GNU Lesser General Public License for more details.
   
   Cite this work as:
   * C. Bannwarth, E. Caldeweyher, S. Ehlert, A. Hansen, P. Pracht,
     J. Seibert, S. Spicher, S. Grimme, WIREs Comput. Mol. Sci., 2020, 11,
     e01493. DOI: 10.1002/wcms.1493
   
   for GFN2-xTB:
   * C. Bannwarth, S. Ehlert and S. Grimme., J. Chem. Theory Comput., 2019,
     15, 1652-1671. DOI: 10.1021/acs.jctc.8b01176
   for GFN1-xTB:
   * S. Grimme, C. Bannwarth, P. Shushkov, J. Chem. Theory Comput., 2017,
     13, 1989-2009. DOI: 10.1021/acs.jctc.7b00118
   for GFN0-xTB:
   * P. Pracht, E. Caldeweyher, S. Ehlert, S. Grimme, ChemRxiv, 2019, preprint.
     DOI: 10.26434/chemrxiv.8326202.v1
   for GFN-FF:
   * S. Spicher and S. Grimme, Angew. Chem. Int. Ed., 2020, 59, 15665-15673.
     DOI: 10.1002/anie.202004239
   
   for ALPB and GBSA implicit solvation:
   * S. Ehlert, M. Stahn, S. Spicher, S. Grimme, J. Chem. Theory Comput.,
     2021, 17, 4250-4261. DOI: 10.1021/acs.jctc.1c00471
   
   for DFT-D4:
   * E. Caldeweyher, C. Bannwarth and S. Grimme, J. Chem. Phys., 2017,
     147, 034112. DOI: 10.1063/1.4993215
   * E. Caldeweyher, S. Ehlert, A. Hansen, H. Neugebauer, S. Spicher,
     C. Bannwarth and S. Grimme, J. Chem. Phys., 2019, 150, 154122.
     DOI: 10.1063/1.5090222
   * E. Caldeweyher, J.-M. Mewes, S. Ehlert and S. Grimme, Phys. Chem. Chem. Phys.
     2020, 22, 8499-8512. DOI: 10.1039/D0CP00502A
   
   for sTDA-xTB:
   * S. Grimme and C. Bannwarth, J. Chem. Phys., 2016, 145, 054103.
     DOI: 10.1063/1.4959605
   
   in the mass-spec context:
   * V. Asgeirsson, C. Bauer and S. Grimme, Chem. Sci., 2017, 8, 4879.
     DOI: 10.1039/c7sc00601b
   * J. Koopman and S. Grimme, ACS Omega 2019, 4, 12, 15120-15133.
     DOI: 10.1021/acsomega.9b02011
   
   for metadynamics refer to:
   * S. Grimme, J. Chem. Theory Comput., 2019, 155, 2847-2862
     DOI: 10.1021/acs.jctc.9b00143
   
   for SPH calculations refer to:
   * S. Spicher and S. Grimme, J. Chem. Theory Comput., 2021, 17, 1701-1714
     DOI: 10.1021/acs.jctc.0c01306
   
   with help from (in alphabetical order)
   P. Atkinson, C. Bannwarth, F. Bohle, G. Brandenburg, E. Caldeweyher
   M. Checinski, S. Dohm, S. Ehlert, S. Ehrlich, I. Gerasimov, C. Hölzer
   A. Katbashev, J. Koopman, C. Lavigne, S. Lehtola, F. März, M. Müller,
   F. Musil, H. Neugebauer, J. Pisarek, C. Plett, P. Pracht, F. Pultar,
   J. Seibert, P. Shushkov, S. Spicher, M. Stahn, M. Steiner, T. Strunk,
   J. Stückrath, T. Rose, and J. Unsleber
   
 * started run on 2024/03/11 at 19:00:19.306     

           -------------------------------------------------
          |                Calculation Setup                |
           -------------------------------------------------

          program call               : /groups/kemi/borup/pKalculator/dep/xtb-6.6.0/bin/xtb --gfn 1 /lustre/hpc/kemi/borup/pKalculator/src/smi2gcs/calc_smi2gcs/test_mol/test_mol.xyz --lmo --chrg 0 --uhf 0
          hostname                   : fend01.cluster
          coordinate file            : /lustre/hpc/kemi/borup/pKalculator/src/smi2gcs/calc_smi2gcs/test_mol/test_mol.xyz
          omp threads                :                     1

   ID    Z sym.   atoms
    1    6 C      1-3
    2    1 H      4-11

           -------------------------------------------------
          |                 G F N 1 - x T B                 |
           -------------------------------------------------

        Reference                      10.1021/acs.jctc.7b00118
      * Hamiltonian:
        H0-scaling (s, p, d)           1.850000    2.250000    2.000000
        zeta-weighting                 0.000000
      * Dispersion:
        s8                             2.400000
        a1                             0.630000
        a2                             5.000000
        s9                             0.000000
      * Repulsion:
        kExp                           1.500000
        rExp                           1.000000
      * Coulomb:
        alpha                          2.000000
        third order                    atomic
        anisotropic                    false
      * Halogen bond correction:
        rad-scale                      1.300000
        damping                        0.440000

q/qsh data taken from xtbrestart

          ...................................................
          :                      SETUP                      :
          :.................................................:
          :  # basis functions                  28          :
          :  # atomic orbitals                  28          :
          :  # shells                           22          :
          :  # electrons                        20          :
          :  # halogen bonds                     0          :
          :  max. iterations                   250          :
          :  Hamiltonian                  GFN1-xTB          :
          :  restarted?                       true          :
          :  GBSA solvation                  false          :
          :  PC potential                    false          :
          :  electronic temp.          300.0000000     K    :
          :  accuracy                    1.0000000          :
          :  -> integral cutoff          0.2500000E+02      :
          :  -> integral neglect         0.1000000E-07      :
          :  -> SCF convergence          0.1000000E-05 Eh   :
          :  -> wf. convergence          0.2000000E-04 e    :
          :  Broyden damping             0.4000000          :
          ...................................................

 iter      E             dE          RMSdq      gap      omega  full diag
   1    -10.8197641 -0.108198E+02  0.142E-10    9.39       0.0  T
   2    -10.8197641  0.177636E-14  0.665E-11    9.39  100000.0  T
   3    -10.8197641 -0.177636E-13  0.582E-12    9.39  100000.0  T

   *** convergence criteria satisfied after 3 iterations ***

         #    Occupation            Energy/Eh            Energy/eV
      -------------------------------------------------------------
         1        2.0000           -0.6519136             -17.7395
       ...           ...                  ...                  ...
         4        2.0000           -0.5564959             -15.1430
         5        2.0000           -0.5407608             -14.7148
         6        2.0000           -0.5185465             -14.1104
         7        2.0000           -0.5063144             -13.7775
         8        2.0000           -0.4775575             -12.9950
         9        2.0000           -0.4767928             -12.9742
        10        2.0000           -0.4698455             -12.7851 (HOMO)
        11                         -0.1248201              -3.3965 (LUMO)
        12                         -0.1230365              -3.3480
        13                         -0.1055877              -2.8732
        14                         -0.0866826              -2.3588
        15                         -0.0598327              -1.6281
       ...                                ...                  ...
        28                          0.4659907              12.6803
      -------------------------------------------------------------
                  HL-Gap            0.3450253 Eh            9.3886 eV
             Fermi-level           -0.2973328 Eh           -8.0908 eV
 
 localization/xTB-IFF output generation
 averaging CT terms over            3  occ. levels
 averaging CT terms over            2  virt. levels
 dipole moment from electron density (au)
     X       Y       Z   
   0.0000   0.0130  -0.0047  total (Debye):    0.035
cpu  time for init local    0.00 s
wall time for init local    0.00 s
 doing rotations ...
 initialization of trafo matrix to unity

 converged in      9 iterations, threshold :   0.97876332D-06
 doing transformations ...
 lmo centers(Z=2) and atoms on file <lmocent.coord>
 LMO Fii/eV  ncent    charge center   contributions...
    1 sigma -14.87   1.94  -1.17702   0.36996  -0.01995    1C :  0.51    2C :  0.50
    2 sigma -14.87   1.94   1.17895   0.29140  -0.21860    3C :  0.51    2C :  0.50
    3 sigma -14.74   1.98  -3.46165   0.45614   0.16907    1C :  0.51    6H :  0.49
    4 sigma -14.74   1.98   3.46365   0.22524  -0.41484    3C :  0.51   10H :  0.49
    5 sigma -14.74   1.98   0.10556   2.23144   0.36956    2C :  0.51    7H :  0.50
    6 sigma -14.74   1.98  -0.09468   1.48227  -1.70908    2C :  0.51    8H :  0.50
    7 sigma -14.73   1.97  -2.50827  -1.45982  -0.41935    1C :  0.51    5H :  0.49
    8 sigma -14.72   1.97  -2.30750  -0.70866   1.66481    1C :  0.51    4H :  0.49
    9 sigma -14.72   1.97   2.30068  -1.62016  -0.82482    3C :  0.51    9H :  0.49
   10 sigma -14.72   1.97   2.50145  -0.86900   1.25934    3C :  0.51   11H :  0.49
 files:
 coordprot.0/xtbscreen.xyz/xtblmoinfo/lmocent.coord
 with protonation site input, xtbdock and
 LMO center info written
 

 SCC (total)                   0 d,  0 h,  0 min,  0.020 sec
 SCC setup                      ...        0 min,  0.000 sec (  1.652%)
 Dispersion                     ...        0 min,  0.000 sec (  0.700%)
 classical contributions        ...        0 min,  0.000 sec (  0.289%)
 integral evaluation            ...        0 min,  0.003 sec ( 15.242%)
 iterations                     ...        0 min,  0.003 sec ( 15.058%)
 molecular gradient             ...        0 min,  0.006 sec ( 28.759%)
 printout                       ...        0 min,  0.008 sec ( 38.080%)

         :::::::::::::::::::::::::::::::::::::::::::::::::::::
         ::                     SUMMARY                     ::
         :::::::::::::::::::::::::::::::::::::::::::::::::::::
         :: total energy             -10.667931771210 Eh    ::
         :: gradient norm              0.013162206639 Eh/a0 ::
         :: HOMO-LUMO gap              9.388616664461 eV    ::
         ::.................................................::
         :: SCC energy               -10.819764135691 Eh    ::
         :: -> electrostatic           0.000148188702 Eh    ::
         :: repulsion energy           0.154384805872 Eh    ::
         :: dispersion energy         -0.002552441392 Eh    ::
         :: halogen bond corr.         0.000000000000 Eh    ::
         :: add. restraining           0.000000000000 Eh    ::
         :: total charge              -0.000000000000 e     ::
         :::::::::::::::::::::::::::::::::::::::::::::::::::::

           -------------------------------------------------
          |                Property Printout                |
           -------------------------------------------------

    * Orbital Energies and Occupations

         #    Occupation            Energy/Eh            Energy/eV
      -------------------------------------------------------------
         1        2.0000           -0.6519136             -17.7395
         2        2.0000           -0.6266849             -17.0530
         3        2.0000           -0.5992612             -16.3067
         4        2.0000           -0.5564959             -15.1430
         5        2.0000           -0.5407608             -14.7148
         6        2.0000           -0.5185465             -14.1104
         7        2.0000           -0.5063144             -13.7775
         8        2.0000           -0.4775575             -12.9950
         9        2.0000           -0.4767928             -12.9742
        10        2.0000           -0.4698455             -12.7851 (HOMO)
        11                         -0.1248201              -3.3965 (LUMO)
        12                         -0.1230365              -3.3480
        13                         -0.1055877              -2.8732
        14                         -0.0866826              -2.3588
        15                         -0.0598327              -1.6281
        16                         -0.0463429              -1.2611
        17                         -0.0420531              -1.1443
        18                         -0.0419167              -1.1406
        19                          0.1162690               3.1638
        20                          0.1175408               3.1984
        21                          0.1944339               5.2908
       ...                                ...                  ...
        28                          0.4659907              12.6803
      -------------------------------------------------------------
                  HL-Gap            0.3450253 Eh            9.3886 eV
             Fermi-level           -0.2973328 Eh           -8.0908 eV

  Mulliken/CM5 charges         n(s)   n(p)   n(d)
     1C    -0.08483 -0.23509   1.007  3.078  0.000
     2C    -0.03174 -0.14605   1.022  3.010  0.000
     3C    -0.08483 -0.23509   1.007  3.078  0.000
     4H     0.02632  0.07760   0.974  0.000  0.000
     5H     0.02632  0.07760   0.974  0.000  0.000
     6H     0.02702  0.07780   0.973  0.000  0.000
     7H     0.02104  0.07512   0.979  0.000  0.000
     8H     0.02104  0.07512   0.979  0.000  0.000
     9H     0.02632  0.07760   0.974  0.000  0.000
    10H     0.02702  0.07780   0.973  0.000  0.000
    11H     0.02632  0.07760   0.974  0.000  0.000

Wiberg/Mayer (AO) data.
largest (>0.10) Wiberg bond orders for each atom

 ---------------------------------------------------------------------------
     #   Z sym  total        # sym  WBO       # sym  WBO       # sym  WBO
 ---------------------------------------------------------------------------
     1   6 C    3.997 --     2 C    1.019     4 H    0.988     5 H    0.988
                             6 H    0.987
     2   6 C    3.998 --     1 C    1.019     3 C    1.019     7 H    0.980
                             8 H    0.980
     3   6 C    3.997 --     2 C    1.019     9 H    0.988    11 H    0.988
                            10 H    0.987
     4   1 H    1.005 --     1 C    0.988
     5   1 H    1.005 --     1 C    0.988
     6   1 H    1.006 --     1 C    0.987
     7   1 H    1.007 --     2 C    0.980
     8   1 H    1.007 --     2 C    0.980
     9   1 H    1.005 --     3 C    0.988
    10   1 H    1.006 --     3 C    0.987
    11   1 H    1.005 --     3 C    0.988
 ---------------------------------------------------------------------------

Topologies differ in total number of bonds
Writing topology from bond orders to xtbtopo.mol

 dipole moment from electron density (au)
     X       Y       Z   
   0.0000   0.0130  -0.0047  total (Debye):    0.035


           -------------------------------------------------
          | TOTAL ENERGY              -10.667931771210 Eh   |
          | GRADIENT NORM               0.013162206639 Eh/α |
          | HOMO-LUMO GAP               9.388616664461 eV   |
           -------------------------------------------------

------------------------------------------------------------------------
 * finished run on 2024/03/11 at 19:00:19.356     
------------------------------------------------------------------------
 total:
 * wall-time:     0 d,  0 h,  0 min,  0.044 sec
 *  cpu-time:     0 d,  0 h,  0 min,  0.034 sec
 * ratio c/w:     0.773 speedup
 SCF:
 * wall-time:     0 d,  0 h,  0 min,  0.020 sec
 *  cpu-time:     0 d,  0 h,  0 min,  0.017 sec
 * ratio c/w:     0.834 speedup

